REMARK  Placeholder receptor for dockingflow testing.
REMARK  Replace with a real prepared receptor (e.g. via ADFR's prepare_receptor,
REMARK  MGLTools' prepare_receptor4.py, or Meeko's mk_prepare_receptor.py) before
REMARK  running a real docking campaign. Its few bare carbons only let a test run
REMARK  exercise the pipeline end to end; the scores mean nothing.
ATOM      1  CA  ALA A   1      10.000  10.000  10.000  1.00  0.00     0.000 C
ATOM      2  CA  GLY A   2      11.000  10.000  10.000  1.00  0.00     0.000 C
ATOM      3  CA  SER A   3      12.000  10.000  10.000  1.00  0.00     0.000 C
TER
