REMARK  Placeholder receptor for dockingflow testing.
REMARK  Replace with a real prepared receptor (e.g. via AutoDockTools/MGLTools
REMARK  or Meeko) before running a real docking campaign.
ROOT
ATOM      1  CA  ALA A   1      10.000  10.000  10.000  1.00  0.00     0.000 C
ATOM      2  CA  GLY A   2      11.000  10.000  10.000  1.00  0.00     0.000 C
ATOM      3  CA  SER A   3      12.000  10.000  10.000  1.00  0.00     0.000 C
ENDROOT
TORSDOF 0
